init.lammps - created by mBuild

10364 atoms
11316 bonds
21720 angles
31246 dihedrals
0 impropers

12 atom types
14 bond types
27 angle types
36 dihedral types

0.000000 50.000000 xlo xhi
0.000000 50.000000 ylo yhi
0.000000 526.320006 zlo zhi

Masses

4	15.999430	# opls_1001
5	28.085530	# opls_1002
10	15.999430	# opls_1007
11	15.999430	# opls_1008
7	12.010780	# opls_1004
3	1.007947	# opls_140
2	12.010780	# opls_136
1	12.010780	# opls_135
6	28.085530	# opls_1003
8	15.999430	# opls_1005
9	1.007947	# opls_1006
12	1.007947	# opls_1009

Pair Coeffs # lj 
#	epsilon (kcal/mol)		sigma (Angstrom)
4	0.17000		3.00000		# opls_1001
5	0.10000		4.00000		# opls_1002
10	0.17000		3.00000		# opls_1007
11	0.17000		3.00000		# opls_1008
7	0.06600		3.50000		# opls_1004
3	0.03000		2.50000		# opls_140
2	0.06600		3.50000		# opls_136
1	0.06600		3.50000		# opls_135
6	0.10000		4.00000		# opls_1003
8	0.17000		3.12000		# opls_1005
9	0.00000		10.00000		# opls_1006
12	0.00000		0.00000		# opls_1009

Bond Coeffs # harmonic
#	k(kcal/mol/angstrom^2)		req(angstrom)
1	268.0		1.529		# opls_135	opls_136
2	268.0		1.529		# opls_136	opls_136
3	300.0		1.65		# opls_1003	opls_1007
4	300.0		1.65		# opls_1003	opls_1005
5	200.0		1.85		# opls_1003	opls_1004
6	300.0		1.65		# opls_1002	opls_1008
7	340.0		1.09		# opls_135	opls_140
8	300.0		1.65		# opls_1001	opls_1002
9	553.0		0.945		# opls_1008	opls_1009
10	340.0		1.09		# opls_136	opls_140
11	340.0		1.09		# opls_1004	opls_140
12	553.0		0.945		# opls_1005	opls_1006
13	268.0		1.529		# opls_1004	opls_136
14	300.0		1.65		# opls_1002	opls_1007

Angle Coeffs # harmonic
#	k(kcal/mol/rad^2)		theteq(deg)
1	58.35		112.70000	# opls_1004	opls_136	opls_136
2	37.5		110.70000	# opls_136	opls_136	opls_140
3	60.0		110.00000	# opls_1001	opls_1002	opls_1001
4	37.5		110.70000	# opls_1004	opls_136	opls_140
5	60.0		99.99800	# opls_1004	opls_1003	opls_1007
6	20.0		145.00000	# opls_1002	opls_1007	opls_1003
7	37.5		110.70000	# opls_1003	opls_1004	opls_140
8	30.47		120.00000	# opls_1003	opls_1004	opls_136
9	23.776		122.88800	# opls_1003	opls_1005	opls_1006
10	58.35		112.70000	# opls_135	opls_136	opls_136
11	60.0		110.00000	# opls_1005	opls_1003	opls_1005
12	23.776		122.88800	# opls_1002	opls_1008	opls_1009
13	60.0		99.99800	# opls_1004	opls_1003	opls_1005
14	33.0		107.80000	# opls_140	opls_136	opls_140
15	58.35		112.70000	# opls_136	opls_136	opls_136
16	37.5		110.70000	# opls_135	opls_136	opls_140
17	20.0		145.00000	# opls_1002	opls_1001	opls_1002
18	60.0		110.00000	# opls_1001	opls_1002	opls_1008
19	60.0		110.00000	# opls_1005	opls_1003	opls_1007
20	60.0		110.00000	# opls_1007	opls_1002	opls_1007
21	37.5		110.70000	# opls_136	opls_135	opls_140
22	33.0		107.80000	# opls_140	opls_135	opls_140
23	33.0		107.80000	# opls_140	opls_1004	opls_140
24	60.0		110.00000	# opls_1001	opls_1002	opls_1007
25	60.0		110.00000	# opls_1008	opls_1002	opls_1008
26	37.5		110.70000	# opls_136	opls_1004	opls_140
27	60.0		110.00000	# opls_1007	opls_1002	opls_1008

Dihedral Coeffs # opls
#	f1(kcal/mol)	f2(kcal/mol)	f3(kcal/mol)	f4(kcal/mol)
1	-0.00000	0.00000		-0.00000		-0.00000	# opls_1002	opls_1001	opls_1002	opls_1007
2	-0.00000	0.00000		-0.00000		-0.00000	# opls_1007	opls_1002	opls_1001	opls_1002
3	-0.00000	0.00000		-0.00000		-0.00000	# opls_1002	opls_1001	opls_1002	opls_1008
4	-0.00000	0.00000		-0.00000		-0.00000	# opls_1007	opls_1003	opls_1004	opls_140
5	-0.00000	0.00000		-0.00000		-0.00000	# opls_1007	opls_1002	opls_1007	opls_1003
6	1.30000	-0.05000		0.20000		-0.00000	# opls_136	opls_136	opls_136	opls_135
7	-0.00000	0.00000		0.30000		-0.00000	# opls_140	opls_136	opls_136	opls_136
8	-0.00000	0.00000		-0.00000		-0.00000	# opls_1002	opls_1007	opls_1003	opls_1005
9	-0.00000	0.00000		-0.00000		-0.00000	# opls_1005	opls_1003	opls_1005	opls_1006
10	-0.00000	0.00000		-0.00000		-0.00000	# opls_136	opls_136	opls_1004	opls_1003
11	1.30000	-0.05000		0.20000		-0.00000	# opls_136	opls_136	opls_136	opls_136
12	1.30000	-0.05000		0.20000		-0.00000	# opls_1004	opls_136	opls_136	opls_136
13	-0.00000	0.00000		-0.00000		-0.00000	# opls_136	opls_1004	opls_1003	opls_1005
14	-0.00000	0.00000		-0.00000		-0.00000	# opls_1008	opls_1002	opls_1001	opls_1002
15	-0.00000	0.00000		-0.00000		-0.00000	# opls_1002	opls_1001	opls_1002	opls_1001
16	-0.00000	0.00000		-0.00000		-0.00000	# opls_1008	opls_1002	opls_1007	opls_1003
17	-0.00000	0.00000		0.30000		-0.00000	# opls_140	opls_136	opls_135	opls_140
18	-0.00000	0.00000		-0.00000		-0.00000	# opls_1002	opls_1007	opls_1003	opls_1004
19	-0.00000	0.00000		-0.00000		-0.00000	# opls_1004	opls_1003	opls_1005	opls_1006
20	-0.00000	0.00000		0.30000		-0.00000	# opls_140	opls_136	opls_136	opls_140
21	-0.00000	0.00000		-0.00000		-0.00000	# opls_1007	opls_1003	opls_1004	opls_136
22	-0.00000	0.00000		-0.00000		-0.00000	# opls_140	opls_1004	opls_1003	opls_1005
23	-0.00000	0.00000		-0.00000		-0.00000	# opls_1001	opls_1002	opls_1001	opls_1002
24	-0.00000	0.00000		0.30000		-0.00000	# opls_136	opls_136	opls_135	opls_140
25	-0.00000	0.00000		-0.00000		-0.00000	# opls_1001	opls_1002	opls_1008	opls_1009
26	-0.00000	0.00000		-0.00000		-0.00000	# opls_1007	opls_1002	opls_1008	opls_1009
27	-0.00000	0.00000		0.30000		-0.00000	# opls_140	opls_1004	opls_136	opls_136
28	-0.00000	0.00000		0.30000		-0.00000	# opls_140	opls_1004	opls_136	opls_140
29	-0.00000	0.00000		0.30000		-0.00000	# opls_136	opls_136	opls_136	opls_140
30	-0.00000	0.00000		0.30000		-0.00000	# opls_140	opls_136	opls_136	opls_135
31	-0.00000	0.00000		-0.00000		-0.00000	# opls_1006	opls_1005	opls_1003	opls_1005
32	-0.00000	0.00000		-0.00000		-0.00000	# opls_1007	opls_1003	opls_1005	opls_1006
33	-0.00000	0.00000		-0.00000		-0.00000	# opls_140	opls_136	opls_1004	opls_1003
34	-0.00000	0.00000		0.30000		-0.00000	# opls_1004	opls_136	opls_136	opls_140
35	-0.00000	0.00000		-0.00000		-0.00000	# opls_1008	opls_1002	opls_1008	opls_1009
36	-0.00000	0.00000		-0.00000		-0.00000	# opls_1001	opls_1002	opls_1007	opls_1003

Atoms

1	0	4	-0.430000	39.328001	24.233999	3.158000
2	0	4	-0.430000	8.458000	48.539000	6.196000
3	0	4	-0.430000	9.937000	34.345000	9.708000
4	0	4	-0.430000	27.931001	20.950000	2.965000
5	0	5	0.860000	34.051001	21.909001	6.480000
6	0	4	-0.430000	31.415999	17.141000	7.915000
7	0	4	-0.430000	7.423000	25.471001	6.782000
8	0	4	-0.430000	47.112002	3.109000	5.540000
9	0	4	-0.430000	32.897999	7.805000	9.947000
10	0	5	0.860000	38.780999	11.961000	4.522000
11	0	4	-0.430000	25.369999	1.588000	12.728000
12	0	4	-0.430000	28.220000	7.462000	11.469001
13	0	4	-0.430000	41.542001	22.282000	9.193000
14	0	4	-0.430000	31.754999	1.973000	13.476000
15	0	5	0.860000	1.214000	26.389999	3.620000
16	0	4	-0.430000	32.165999	42.104998	9.028000
17	0	4	-0.430000	26.293001	46.371002	7.646000
18	0	4	-0.430000	17.536000	25.383999	7.570000
19	0	4	-0.430000	45.419002	33.137000	12.108001
20	0	5	0.860000	37.434001	4.139000	8.168000
21	0	4	-0.430000	35.436001	32.857001	8.728000
22	0	4	-0.430000	23.706999	24.591000	4.995000
23	0	5	0.860000	7.629000	42.045999	14.577000
24	0	5	0.860000	18.943000	40.913000	13.630000
25	0	4	-0.430000	9.665000	31.968000	5.791000
26	0	5	0.860000	45.486002	22.886000	10.200000
27	0	5	0.860000	19.993000	18.228000	12.335000
28	0	4	-0.430000	24.525001	30.741000	7.963000
29	0	4	-0.430000	32.664001	41.931000	11.499000
30	0	4	-0.430000	6.559000	27.349999	5.010000
31	0	5	0.860000	8.952000	33.060000	4.987000
32	0	4	-0.430000	40.113001	25.941000	9.765000
33	0	4	-0.430000	20.620999	37.537999	6.448000
34	0	5	0.860000	24.691999	29.482999	6.984000
35	0	5	0.860000	19.394000	15.742000	5.633000
36	0	4	-0.430000	29.876001	11.797000	6.289000
37	0	4	-0.430000	37.936001	30.604999	3.104000
38	0	4	-0.430000	49.299998	43.165002	4.774000
39	0	4	-0.430000	49.240999	15.430000	8.779000
40	0	5	0.860000	16.004000	25.696001	7.525000
41	0	4	-0.430000	10.236000	3.411000	9.697000
42	0	4	-0.430000	43.421001	28.273001	6.395000
43	0	4	-0.430000	0.187000	40.651999	3.974000
44	0	4	-0.430000	11.933000	36.875999	3.006000
45	0	5	0.860000	43.887000	0.374000	7.353000
46	0	4	-0.430000	23.357999	12.308000	11.720999
47	0	10	-0.215000	46.332998	21.916001	14.234999
48	0	5	0.860000	25.387001	41.575999	12.488000
49	0	4	-0.430000	46.086001	21.294999	7.017000
50	0	4	-0.430000	21.733999	6.616000	4.350000
51	0	4	-0.430000	23.627999	38.418000	11.411999
52	0	4	-0.430000	48.424001	30.320001	6.443000
53	0	4	-0.430000	14.841000	23.724000	11.104000
54	0	4	-0.430000	13.872000	7.727000	8.001000
55	0	4	-0.430000	42.932000	35.655000	5.021000
56	0	5	0.860000	14.958000	22.298999	11.766000
57	0	5	0.860000	1.366000	23.936999	5.441000
58	0	4	-0.430000	17.841001	37.781999	13.087000
59	0	4	-0.430000	2.107000	45.416999	9.424000
60	0	5	0.860000	23.710001	28.922000	12.392000
61	0	4	-0.430000	38.952999	35.432999	11.083000
62	0	4	-0.430000	18.975000	37.196000	8.615000
63	0	4	-0.430000	20.409000	49.892001	4.660000
64	0	4	-0.430000	45.001001	36.931000	13.753999
65	0	4	-0.430000	46.359000	38.673000	9.410000
66	0	5	0.860000	30.362999	42.957001	3.621000
67	0	5	0.860000	47.895002	43.881001	5.084000
68	0	4	-0.430000	21.738000	45.444999	8.683000
69	0	4	-0.430000	29.726000	34.791999	11.384000
70	0	4	-0.430000	28.074999	5.082000	10.582000
71	0	4	-0.430000	21.157000	46.307001	14.363000
72	0	5	0.860000	24.930000	47.104998	7.698000
73	0	4	-0.430000	49.242001	47.308002	4.119000
74	0	10	-0.215000	9.997000	49.020000	15.303000
75	0	4	-0.430000	19.363000	42.346001	13.248000
76	0	4	-0.430000	42.670002	39.888999	13.363000
77	0	4	-0.430000	30.455000	7.131000	10.039999
78	0	5	0.860000	23.169999	7.246000	4.418000
79	0	4	-0.430000	22.691000	40.008001	9.839000
80	0	4	-0.430000	9.243000	34.426000	5.613000
81	0	5	0.860000	35.950999	45.084000	7.420000
82	0	4	-0.430000	13.002000	14.669000	10.068001
83	0	5	0.860000	22.302999	18.218000	3.430000
84	0	4	-0.430000	38.692000	44.660001	9.965000
85	0	5	0.860000	5.375000	36.631000	5.446000
86	0	4	-0.430000	8.777000	41.012001	14.107000
87	0	4	-0.430000	31.661000	6.924000	7.681000
88	0	4	-0.430000	2.104000	44.495001	11.917000
89	0	4	-0.430000	10.266000	3.219000	12.086999
90	0	4	-0.430000	33.271000	37.681999	4.309000
91	0	4	-0.430000	2.523000	37.163999	12.450000
92	0	4	-0.430000	34.798999	41.855001	10.224000
93	0	5	0.860000	40.619998	48.955998	13.004000
94	0	5	0.860000	20.402000	45.177002	4.595000
95	0	5	0.860000	30.081999	17.967000	7.945000
96	0	4	-0.430000	30.578001	43.351998	7.254000
97	0	4	-0.430000	19.390000	32.483001	10.844001
98	0	4	-0.430000	38.796999	47.010999	10.969000
99	0	5	0.860000	39.498999	19.374000	8.708000
100	0	4	-0.430000	42.948999	38.576000	2.435000
101	0	5	0.860000	3.824000	29.579999	7.993000
102	0	4	-0.430000	26.120999	8.970000	12.567000
103	0	4	-0.430000	37.344000	8.403000	7.940000
104	0	4	-0.430000	15.102000	37.049999	8.051000
105	0	4	-0.430000	9.679000	3.551000	2.898000
106	0	4	-0.430000	31.579001	43.943000	3.596000
107	0	5	0.860000	35.890000	12.349000	5.651000
108	0	4	-0.430000	4.264000	9.026000	4.780000
109	0	4	-0.430000	44.026999	15.398000	4.956000
110	0	4	-0.430000	38.309000	33.036001	11.964000
111	0	5	0.860000	32.851000	29.518001	12.265000
112	0	4	-0.430000	22.934999	41.454000	7.921000
113	0	4	-0.430000	30.037000	49.705000	3.381000
114	0	5	0.860000	3.500000	38.752999	4.432000
115	0	4	-0.430000	38.201001	10.654000	7.592000
116	0	4	-0.430000	9.721000	44.159999	8.423000
117	0	4	-0.430000	38.464999	25.906000	8.134000
118	0	4	-0.430000	6.094000	16.219000	8.688000
119	0	5	0.860000	35.548999	30.070000	13.529000
120	0	11	-0.215000	19.489000	24.523001	14.706000
121	0	4	-0.430000	41.356001	36.336999	10.085000
122	0	5	0.860000	15.163000	35.713999	7.301000
123	0	4	-0.430000	7.649000	16.052001	13.147000
124	0	4	-0.430000	31.185000	7.832000	5.087000
125	0	4	-0.430000	24.154999	46.100001	8.575000
126	0	4	-0.430000	8.281000	6.023000	12.126000
127	0	5	0.860000	5.456000	7.365000	14.242001
128	0	4	-0.430000	45.331001	24.432001	9.876000
129	0	5	0.860000	25.696001	37.458999	8.851000
130	0	4	-0.430000	2.207000	13.145000	12.852000
131	0	5	0.860000	15.937999	32.723999	8.101000
132	0	5	0.860000	7.520000	44.172001	12.370000
133	0	4	-0.430000	30.444000	23.069999	5.221000
134	0	4	-0.430000	46.704998	47.737002	5.013000
135	0	10	-0.215000	13.241000	47.360001	14.735000
136	0	4	-0.430000	11.449000	7.463000	8.776000
137	0	5	0.860000	23.794999	1.676000	6.839000
138	0	5	0.860000	29.407001	14.144000	12.772000
139	0	4	-0.430000	2.860000	30.072000	9.226000
140	0	11	-0.215000	39.979999	19.634000	14.986000
141	0	5	0.860000	21.980000	30.927999	3.394000
142	0	4	-0.430000	24.349999	18.963000	7.667000
143	0	5	0.860000	22.532001	25.084000	4.139000
144	0	4	-0.430000	3.282000	9.131000	10.005000
145	0	5	0.860000	18.556000	33.666999	11.461999
146	0	4	-0.430000	17.668999	29.672000	7.116000
147	0	5	0.860000	20.215001	6.496000	4.709000
148	0	5	0.860000	26.059000	40.818000	5.849000
149	0	4	-0.430000	28.965001	38.785000	10.209000
150	0	5	0.860000	49.428000	0.534000	8.605000
151	0	11	-0.215000	30.912001	5.789000	15.493000
152	0	4	-0.430000	4.772000	21.759000	6.455000
153	0	4	-0.430000	24.252999	33.297999	7.867000
154	0	4	-0.430000	26.557000	43.063998	13.504000
155	0	5	0.860000	10.702000	30.748999	6.100000
156	0	4	-0.430000	42.670002	5.673000	5.290000
157	0	5	0.860000	14.270000	49.963999	11.686000
158	0	4	-0.430000	6.610000	21.129999	10.030000
159	0	4	-0.430000	49.450998	11.825000	10.806000
160	0	4	-0.430000	41.125998	13.842000	9.887000
161	0	4	-0.430000	36.599000	20.815001	13.396000
162	0	4	-0.430000	45.681000	15.026000	7.023000
163	0	4	-0.430000	46.746001	26.301000	8.848000
164	0	4	-0.430000	27.852001	30.157001	5.163000
165	0	4	-0.430000	14.008000	16.738000	5.338000
166	0	5	0.860000	13.349000	24.624000	3.219000
167	0	4	-0.430000	25.901999	34.870999	4.429000
168	0	4	-0.430000	20.123000	4.883000	4.591000
169	0	4	-0.430000	34.147000	15.121000	11.300000
170	0	5	0.860000	1.373000	22.151000	2.922000
171	0	4	-0.430000	21.386001	9.354000	14.279000
172	0	4	-0.430000	49.790001	25.985999	3.171000
173	0	4	-0.430000	32.214999	27.328999	8.749000
174	0	4	-0.430000	42.419000	13.568000	5.724000
175	0	4	-0.430000	37.214000	5.277000	9.258000
176	0	4	-0.430000	40.998001	23.496001	1.591000
177	0	4	-0.430000	0.646000	27.925000	13.376000
178	0	5	0.860000	0.811000	19.159000	9.658000
179	0	4	-0.430000	30.532999	18.176000	4.003000
180	0	4	-0.430000	41.985002	33.401000	8.886000
181	0	4	-0.430000	6.959000	38.817000	12.115000
182	0	4	-0.430000	23.563001	28.829000	6.031000
183	0	5	0.860000	36.896000	6.162000	10.473000
184	0	4	-0.430000	30.906000	42.897000	12.876000
185	0	5	0.860000	36.659000	19.167000	13.073000
186	0	4	-0.430000	22.344999	33.771999	10.427999
187	0	5	0.860000	38.771999	49.446998	3.834000
188	0	5	0.860000	20.632000	28.678999	11.659000
189	0	4	-0.430000	29.105999	9.907000	8.049000
190	0	4	-0.430000	4.330000	16.109000	6.826000
191	0	5	0.860000	46.197000	8.466000	8.642000
192	0	4	-0.430000	31.477001	20.920000	10.325000
193	0	4	-0.430000	23.673999	13.709000	7.197000
194	0	4	-0.430000	25.785000	16.052999	11.293000
195	0	5	0.860000	25.072000	2.065000	11.281000
196	0	4	-0.430000	6.513000	12.363000	10.098000
197	0	4	-0.430000	9.748000	22.305000	14.048001
198	0	4	-0.430000	31.243000	26.131001	6.491000
199	0	4	-0.430000	29.556000	43.432999	4.910000
200	0	4	-0.430000	5.529000	29.698000	4.578000
201	0	4	-0.430000	41.269002	0.229000	13.601000
202	0	5	0.860000	12.129000	29.939001	9.984000
203	0	10	-0.215000	37.653999	22.679999	14.499000
204	0	4	-0.430000	19.397000	5.534000	14.581000
205	0	5	0.860000	42.981000	42.561002	10.560000
206	0	4	-0.430000	0.022000	14.527000	4.110000
207	0	4	-0.430000	27.527001	6.107000	3.802000
208	0	4	-0.430000	12.725000	3.709000	12.485000
209	0	5	0.860000	9.418000	2.831000	10.857000
210	0	4	-0.430000	31.659999	36.152000	10.549999
211	0	5	0.860000	18.529000	31.057000	7.420000
212	0	4	-0.430000	22.953000	45.110998	10.949000
213	0	4	-0.430000	47.530999	28.178999	7.571000
214	0	5	0.860000	32.411001	11.426001	14.426000
215	0	4	-0.430000	22.097001	2.956000	3.579000
216	0	4	-0.430000	23.975000	47.168002	6.430000
217	0	5	0.860000	35.634999	7.797000	5.095000
218	0	10	-0.215000	28.638999	36.255000	14.382000
219	0	5	0.860000	15.256000	25.142000	10.427001
220	0	4	-0.430000	18.658000	35.088999	10.635999
221	0	4	-0.430000	20.265999	37.569001	13.800000
222	0	4	-0.430000	29.719999	18.081000	12.367001
223	0	4	-0.430000	25.999999	19.877000	4.294000
224	0	4	-0.430000	41.040001	2.255000	8.118000
225	0	5	0.860000	26.505001	9.223000	5.533000
226	0	4	-0.430000	36.912000	40.412998	10.799000
227	0	4	-0.430000	20.734000	15.252000	4.905000
228	0	4	-0.430000	19.496000	18.340000	10.812000
229	0	4	-0.430000	22.932999	2.962000	7.093000
230	0	4	-0.430000	46.315999	48.933001	13.312000
231	0	4	-0.430000	25.559001	23.577001	6.496000
232	0	4	-0.430000	34.944000	48.638000	11.081001
233	0	5	0.860000	25.574000	19.744000	11.903000
234	0	4	-0.430000	48.864002	43.143001	13.370000
235	0	5	0.860000	39.865000	13.049001	13.474000
236	0	4	-0.430000	0.675000	30.518000	10.584000
237	0	11	-0.215000	19.305000	40.632000	15.204999
238	0	5	0.860000	19.942000	6.171000	7.772000
239	0	5	0.860000	23.199000	12.079000	3.805000
240	0	4	-0.430000	30.838001	5.445000	5.968000
241	0	4	-0.430000	45.910001	7.529000	7.386000
242	0	5	0.860000	3.684000	12.823000	12.348000
243	0	4	-0.430000	18.810000	44.670000	12.270000
244	0	5	0.860000	38.006001	11.303999	9.022000
245	0	4	-0.430000	20.974000	36.148000	4.380000
246	0	5	0.860000	21.043999	5.263000	14.693000
247	0	4	-0.430000	33.522999	45.489001	2.916000
248	0	4	-0.430000	28.375001	6.087000	14.690000
249	0	5	0.860000	9.241000	45.548000	3.379000
250	0	5	0.860000	34.365001	5.536000	12.332000
251	0	5	0.860000	39.616001	25.809000	3.145000
252	0	4	-0.430000	28.855000	16.983000	8.274000
253	0	5	0.860000	10.872999	25.446000	9.409000
254	0	4	-0.430000	2.938000	27.367001	13.511000
255	0	4	-0.430000	33.394001	45.242000	13.796000
256	0	5	0.860000	45.865002	31.896999	2.798000
257	0	4	-0.430000	43.399000	5.461000	10.903000
258	0	5	0.860000	48.186002	9.244000	12.939000
259	0	4	-0.430000	45.310001	32.562001	6.956000
260	0	4	-0.430000	21.817000	45.904002	5.119000
261	0	4	-0.430000	42.070999	47.716999	9.440000
262	0	5	0.860000	35.441999	32.052000	7.389000
263	0	4	-0.430000	45.131001	14.186000	9.377000
264	0	4	-0.430000	13.723000	1.321000	12.255000
265	0	4	-0.430000	28.418000	12.230999	8.341000
266	0	4	-0.430000	48.115001	3.656000	3.230000
267	0	4	-0.430000	24.363000	21.201000	2.982000
268	0	5	0.860000	0.475000	39.273000	4.687000
269	0	5	0.860000	49.829001	17.224000	12.616000
270	0	4	-0.430000	11.883000	42.936001	5.503000
271	0	4	-0.430000	48.099999	18.590000	5.271000
272	0	11	-0.215000	36.935000	13.580000	15.214000
273	0	5	0.860000	13.576000	45.131001	8.319000
274	0	4	-0.430000	7.942000	29.614999	8.551000
275	0	4	-0.430000	19.449000	16.287000	9.265000
276	0	5	0.860000	21.542001	36.572001	14.165000
277	0	4	-0.430000	20.855999	44.137001	13.737000
278	0	4	-0.430000	21.872001	33.066001	6.700000
279	0	5	0.860000	28.168001	32.516000	7.890000
280	0	4	-0.430000	9.326000	14.753000	6.824000
281	0	5	0.860000	33.408000	23.720000	8.877000
282	0	4	-0.430000	22.091999	20.620999	7.591000
283	0	4	-0.430000	3.462000	6.404000	10.525000
284	0	5	0.860000	37.312000	24.540000	11.447001
285	0	4	-0.430000	26.214001	25.896001	11.803000
286	0	5	0.860000	39.068999	17.280000	3.363000
287	0	4	-0.430000	38.618000	34.261999	4.535000
288	0	5	0.860000	37.604001	34.212999	3.353000
289	0	4	-0.430000	17.197000	29.718001	13.479000
290	0	4	-0.430000	0.797000	42.589002	7.799000
291	0	4	-0.430000	22.211001	13.282000	3.879000
292	0	11	-0.215000	40.138001	25.932000	14.324000
293	0	4	-0.430000	3.301000	42.019000	7.227000
294	0	4	-0.430000	42.695999	40.531001	3.859000
295	0	5	0.860000	17.000000	5.145000	8.097000
296	0	4	-0.430000	47.189002	25.876000	6.400000
297	0	4	-0.430000	42.621002	18.383000	10.747000
298	0	4	-0.430000	8.076000	15.118999	4.619000
299	0	5	0.860000	45.095000	38.425000	10.350000
300	0	4	-0.430000	45.815001	0.032000	1.458000
301	0	5	0.860000	12.998000	31.861000	7.703000
302	0	4	-0.430000	18.443000	18.722000	8.466000
303	0	4	-0.430000	24.437001	16.746000	6.586000
304	0	10	-0.215000	49.446001	48.719001	14.674000
305	0	5	0.860000	14.954000	12.910000	6.053000
306	0	4	-0.430000	14.965000	18.791000	9.984000
307	0	4	-0.430000	37.987001	44.942999	12.372000
308	0	5	0.860000	20.948999	47.835999	14.634000
309	0	5	0.860000	24.728000	26.194999	11.453000
310	0	4	-0.430000	47.363000	32.921000	8.333000
311	0	4	-0.430000	43.067002	2.060000	14.218000
312	0	4	-0.430000	32.096000	16.763999	11.490000
313	0	4	-0.430000	34.886000	47.178001	12.965000
314	0	4	-0.430000	12.750000	15.317000	3.565000
315	0	4	-0.430000	35.160000	41.771998	5.176000
316	0	4	-0.430000	46.301999	43.304000	9.123000
317	0	4	-0.430000	21.463001	14.598000	8.616000
318	0	4	-0.430000	38.824999	47.905998	3.556000
319	0	10	-0.215000	31.596999	22.261000	15.302000
320	0	4	-0.430000	33.464999	1.999000	3.786000
321	0	4	-0.430000	27.302999	14.655000	8.423000
322	0	5	0.860000	47.783999	30.423000	13.016000
323	0	5	0.860000	28.069999	37.330000	13.364000
324	0	4	-0.430000	24.301000	27.588999	11.808000
325	0	4	-0.430000	29.210000	28.598001	14.220999
326	0	4	-0.430000	18.406000	47.343001	11.644000
327	0	4	-0.430000	6.410000	19.640000	5.344000
328	0	4	-0.430000	19.747000	28.585000	12.964000
329	0	4	-0.430000	9.749000	47.161002	13.224000
330	0	5	0.860000	48.578000	19.792000	6.033000
331	0	5	0.860000	13.212000	6.272000	4.406000
332	0	5	0.860000	38.866999	43.771000	3.909000
333	0	4	-0.430000	16.173000	35.918000	6.179000
334	0	5	0.860000	46.980000	2.941000	3.982000
335	0	4	-0.430000	16.421000	48.944998	5.264000
336	0	10	-0.215000	26.694000	44.959002	15.134000
337	0	4	-0.430000	49.798002	38.406000	12.483000
338	0	5	0.860000	45.784998	33.952000	13.414000
339	0	5	0.860000	28.432000	0.986000	9.018000
340	0	10	-0.215000	13.712000	44.075999	14.126000
341	0	11	-0.215000	18.422000	28.392999	15.158000
342	0	4	-0.430000	3.791000	19.234000	12.222000
343	0	5	0.860000	37.381001	14.372000	9.266000
344	0	4	-0.430000	39.609001	17.114000	4.757000
345	0	4	-0.430000	18.985000	23.203001	4.936000
346	0	4	-0.430000	33.383000	29.589000	8.653000
347	0	5	0.860000	6.504000	34.354000	3.644000
348	0	10	-0.215000	27.095001	38.412001	14.215000
349	0	4	-0.430000	10.639000	41.721001	12.323000
350	0	5	0.860000	21.801000	23.475001	10.149000
351	0	4	-0.430000	32.188001	2.937000	11.052999
352	0	4	-0.430000	48.284998	37.104001	8.283000
353	0	4	-0.430000	41.040001	2.351000	12.743000
354	0	4	-0.430000	21.656001	15.286000	2.488000
355	0	5	0.860000	23.611000	42.473001	6.800000
356	0	5	0.860000	39.189999	24.763000	8.963000
357	0	4	-0.430000	23.585999	47.495999	12.086000
358	0	4	-0.430000	35.655000	44.682999	12.939000
359	0	4	-0.430000	38.808999	10.515000	5.024000
360	0	5	0.860000	24.061999	35.149000	14.236000
361	0	5	0.860000	7.545000	17.430000	12.270000
362	0	4	-0.430000	11.928000	10.013000	4.398000
363	0	11	-0.215000	29.487000	24.881999	15.080000
364	0	4	-0.430000	47.445998	12.972000	12.055000
365	0	4	-0.430000	16.435000	1.345000	6.424000
366	0	10	-0.215000	15.107000	41.810002	14.349000
367	0	5	0.860000	10.312999	11.892000	10.402000
368	0	4	-0.430000	11.207000	32.363999	13.447000
369	0	4	-0.430000	23.780999	46.841998	3.906000
370	0	4	-0.430000	32.307999	40.549002	13.525000
371	0	5	0.860000	14.613000	39.849000	10.862000
372	0	4	-0.430000	23.896999	25.358000	12.480000
373	0	5	0.860000	9.019000	4.251000	4.090000
374	0	4	-0.430000	25.112000	14.651999	5.439000
375	0	5	0.860000	44.014001	36.714001	7.755000
376	0	4	-0.430000	48.154998	10.784000	12.793000
377	0	4	-0.430000	14.579999	10.105000	13.960000
378	0	4	-0.430000	30.253999	15.452000	12.244000
379	0	4	-0.430000	15.143000	39.453001	9.447000
380	0	5	0.860000	26.143000	3.179000	5.582000
381	0	4	-0.430000	0.453000	3.148000	6.269000
382	0	4	-0.430000	46.834998	49.390998	10.986000
383	0	4	-0.430000	4.059000	36.599000	8.488000
384	0	5	0.860000	21.970000	14.847000	4.001000
385	0	5	0.860000	5.483000	21.887000	10.951999
386	0	4	-0.430000	12.961000	16.013000	12.079000
387	0	5	0.860000	18.511000	45.781002	11.170000
388	0	4	-0.430000	26.112001	6.530000	13.156000
389	0	4	-0.430000	28.954999	11.658000	3.845000
390	0	4	-0.430000	16.857001	4.480000	9.566000
391	0	4	-0.430000	12.207000	31.317999	6.488000
392	0	5	0.860000	3.661000	47.989001	3.266000
393	0	4	-0.430000	2.381000	38.396001	9.263000
394	0	11	-0.215000	2.371000	15.675000	15.173000
395	0	4	-0.430000	16.477000	43.032999	5.436000
396	0	11	-0.215000	18.894000	14.642000	14.090000
397	0	4	-0.430000	8.401000	37.839999	9.993000
398	0	5	0.860000	35.236001	26.096001	9.820000
399	0	4	-0.430000	41.637001	48.294001	12.047000
400	0	4	-0.430000	28.392000	45.521998	9.308000
401	0	5	0.860000	8.765000	9.906000	8.640000
402	0	5	0.860000	31.185999	40.205998	4.619000
403	0	4	-0.430000	33.961999	9.773000	11.354001
404	0	5	0.860000	29.928999	38.980999	11.422000
405	0	4	-0.430000	31.082001	45.229001	13.907000
406	0	4	-0.430000	12.641000	40.563002	10.497000
407	0	4	-0.430000	46.447001	45.464001	8.570000
408	0	4	-0.430000	3.846000	49.677000	12.423000
409	0	4	-0.430000	11.935000	26.307001	10.122000
410	0	11	-0.215000	1.534000	34.459000	14.783000
411	0	4	-0.430000	34.730999	37.077999	7.297000
412	0	4	-0.430000	9.994000	32.727001	3.751000
413	0	4	-0.430000	45.704999	12.994000	13.936000
414	0	5	0.860000	18.462000	19.787000	7.399000
415	0	4	-0.430000	11.224000	35.534000	6.481000
416	0	4	-0.430000	43.910999	10.647000	6.275000
417	0	4	-0.430000	45.520000	36.965001	7.445000
418	0	4	-0.430000	42.360001	47.163000	6.922000
419	0	4	-0.430000	21.782999	13.983999	12.347000
420	0	5	0.860000	4.672000	42.466998	14.749000
421	0	4	-0.430000	44.612999	34.577999	14.302000
422	0	5	0.860000	14.129000	22.980001	14.737999
423	0	5	0.860000	38.254001	43.610001	8.921000
424	0	4	-0.430000	17.559000	27.314000	12.922000
425	0	4	-0.430000	3.395000	11.360000	11.715000
426	0	5	0.860000	6.161000	4.519000	2.957000
427	0	5	0.860000	35.999000	4.799000	5.463000
428	0	11	-0.215000	31.937001	24.654000	15.553000
429	0	4	-0.430000	40.446000	8.894000	11.249000
430	0	5	0.860000	36.378000	8.764000	9.111000
431	0	5	0.860000	1.818000	27.639000	12.352999
432	0	4	-0.430000	47.800999	37.147000	12.807000
433	0	11	-0.215000	6.032000	28.587999	14.656000
434	0	4	-0.430000	11.192000	45.134001	13.163000
435	0	4	-0.430000	48.112001	47.438002	10.412000
436	0	4	-0.430000	39.512999	20.861001	8.207000
437	0	4	-0.430000	7.061000	3.719000	13.266000
438	0	4	-0.430000	26.428001	34.163001	11.474000
439	0	5	0.860000	33.376999	3.530000	3.464000
440	0	4	-0.430000	16.209000	28.590000	2.519000
441	0	5	0.860000	47.500000	16.679000	14.524000
442	0	4	-0.430000	36.118000	48.297000	8.689000
443	0	4	-0.430000	46.749001	17.950000	3.050000
444	0	4	-0.430000	41.686001	42.981000	6.674000
445	0	4	-0.430000	37.476001	12.503999	5.312000
446	0	5	0.860000	24.790001	13.230000	6.204000
447	0	4	-0.430000	38.153000	4.620000	13.371000
448	0	4	-0.430000	9.677000	32.635000	11.305000
449	0	5	0.860000	33.968999	22.869000	3.478000
450	0	4	-0.430000	43.982000	37.962000	9.312000
451	0	5	0.860000	39.879999	10.019000	14.464000
452	0	5	0.860000	12.273999	34.914000	7.410000
453	0	10	-0.215000	48.112001	31.334000	14.263000
454	0	4	-0.430000	25.000999	18.492000	11.167001
455	0	4	-0.430000	2.760000	24.212999	10.402000
456	0	4	-0.430000	42.958002	26.166000	11.820000
457	0	4	-0.430000	45.144000	14.445000	11.748000
458	0	5	0.860000	40.011001	39.883001	8.692000
459	0	4	-0.430000	30.940001	26.724000	14.306999
460	0	4	-0.430000	4.887000	30.608001	12.711000
461	0	5	0.860000	29.840000	5.912000	14.246000
462	0	4	-0.430000	36.740000	29.830000	5.255000
463	0	5	0.860000	29.962001	2.812000	14.351000
464	0	5	0.860000	16.615000	44.783001	8.865000
465	0	4	-0.430000	14.110000	11.859000	9.693000
466	0	4	-0.430000	2.085000	44.155998	6.431000
467	0	4	-0.430000	39.275999	49.280000	12.161000
468	0	5	0.860000	39.047000	45.451999	11.256000
469	0	5	0.860000	46.111999	42.617002	10.503000
470	0	5	0.860000	15.947000	2.368000	7.548000
471	0	5	0.860000	12.767000	44.555001	12.977999
472	0	4	-0.430000	9.280000	23.499999	7.529000
473	0	4	-0.430000	40.700002	34.412000	12.259001
474	0	4	-0.430000	37.397001	49.281998	10.344000
475	0	4	-0.430000	27.298999	9.921000	4.317000
476	0	10	-0.215000	38.971000	38.838000	14.419000
477	0	4	-0.430000	47.500000	17.210000	9.614000
478	0	4	-0.430000	10.777000	40.051999	8.790000
479	0	11	-0.215000	21.303999	5.759000	16.249000
480	0	4	-0.430000	17.122000	19.928000	13.552999
481	0	5	0.860000	24.932001	24.897001	5.901000
482	0	5	0.860000	46.227999	36.812999	12.706000
483	0	4	-0.430000	17.571000	7.102000	13.645999
484	0	11	-0.215000	4.024000	35.256000	14.737999
485	0	4	-0.430000	3.958000	31.731999	3.926000
486	0	4	-0.430000	30.034001	48.182001	5.499000
487	0	5	0.860000	13.432000	27.897999	13.918000
488	0	5	0.860000	2.396000	0.341000	12.161000
489	0	5	0.860000	1.374000	24.867001	10.792000
490	0	4	-0.430000	32.855999	14.016000	5.436000
491	0	5	0.860000	10.645000	14.572999	14.596000
492	0	4	-0.430000	5.036000	32.814000	11.267999
493	0	4	-0.430000	4.395000	1.066000	5.608000
494	0	5	0.860000	11.470000	14.668000	9.665000
495	0	4	-0.430000	45.426002	12.436000	7.716000
496	0	5	0.860000	39.516001	33.908999	11.315000
497	0	4	-0.430000	42.726002	45.904002	11.940000
498	0	4	-0.430000	21.782999	5.750000	13.306000
499	0	4	-0.430000	3.414000	40.741000	9.350000
500	0	4	-0.430000	34.349000	32.361000	3.795000
501	0	4	-0.430000	4.067000	45.717001	13.038000
502	0	4	-0.430000	16.532000	25.603001	11.215000
503	0	4	-0.430000	8.343000	40.215001	9.842000
504	0	4	-0.430000	4.036000	25.372000	8.712000
505	0	4	-0.430000	30.680001	45.802999	9.359000
506	0	4	-0.430000	10.089999	10.712000	6.155000
507	0	4	-0.430000	19.194000	17.192000	5.205000
508	0	4	-0.430000	37.116001	48.207998	12.370000
509	0	11	-0.215000	21.301000	24.045000	16.271000
510	0	5	0.860000	11.367000	16.329000	12.181000
511	0	4	-0.430000	21.018000	22.628000	14.126000
512	0	4	-0.430000	35.517001	49.928999	1.580000
513	0	4	-0.430000	3.196000	13.461000	3.756000
514	0	4	-0.430000	4.006000	30.325000	6.569000
515	0	5	0.860000	39.547999	34.319000	5.903000
516	0	5	0.860000	19.594001	18.687000	4.792000