LAMMPS (7 Aug 2019)
OMP_NUM_THREADS environment is not set. Defaulting to 1 thread. (src/comm.cpp:93)
  using 1 OpenMP thread(s) per MPI task
# Initialization
units		real
boundary	p p f
atom_style	full

# Assume ff info is included in data file
pair_style	lj/cut/coul/cut 10.0
bond_style  harmonic
angle_style harmonic
dihedral_style  opls

read_data	init.lammps
  orthogonal box = (0 0 0) to (50 50 529.69)
  1 by 1 by 1 MPI processor grid
  reading atoms ...
  16264 atoms
  scanning bonds ...
  5 = max bonds/atom
  scanning angles ...
  10 = max angles/atom
  scanning dihedrals ...
  17 = max dihedrals/atom
  reading bonds ...
  17216 bonds
  reading angles ...
  33326 angles
  reading dihedrals ...
  48356 dihedrals
  5 = max # of 1-2 neighbors
  7 = max # of 1-3 neighbors
  20 = max # of 1-4 neighbors
  25 = max # of special neighbors
  special bonds CPU = 0.022668 secs
  read_data CPU = 0.31831 secs

special_bonds lj/coul 0 0 0.5
  5 = max # of 1-2 neighbors
  7 = max # of 1-3 neighbors
  20 = max # of 1-4 neighbors
  25 = max # of special neighbors
  special bonds CPU = 0.018234 secs

pair_modify shift yes mix geometric

# Define groups
variable bottom equal bound(all,zmin)
variable top equal bound(all,zmax)
variable fixmax equal ${bottom}+18.0
variable fixmax equal 1.374+18.0
variable fixmin equal ${top}-18.0
variable fixmin equal 107.312-18.0
region mobile block INF INF INF INF ${fixmax} ${fixmin}
region mobile block INF INF INF INF 19.374 ${fixmin}
region mobile block INF INF INF INF 19.374 89.312
group mobile region mobile
10064 atoms in group mobile
group fixed subtract all mobile
6200 atoms in group fixed

neighbor		2.5 bin
neigh_modify    exclude group fixed fixed

timestep 0.1

fix integrator mobile nve/limit 0.001

thermo 100

dump traj all xtc 1000 minimize.xtc
dump_modify traj unwrap yes

run 10000
Neighbor list info ...
  update every 1 steps, delay 10 steps, check yes
  max neighbors/atom: 2000, page size: 100000
  master list distance cutoff = 12.5
  ghost atom cutoff = 12.5
  binsize = 6.25, bins = 8 8 85
  1 neighbor lists, perpetual/occasional/extra = 1 0 0
  (1) pair lj/cut/coul/cut, perpetual
      attributes: half, newton on
      pair build: half/bin/newton
      stencil: half/bin/3d/newton
      bin: standard
WARNING: Inconsistent image flags (src/domain.cpp:780)
Per MPI rank memory allocation (min/avg/max) = 64.1 | 64.1 | 64.1 Mbytes
Step Temp E_pair E_mol TotEng Press 
       0            0 2.8930376e+08    675856.31 2.8997962e+08     59944850 
     100    113.75973     19718855    558226.78     20282596    4101217.3 
     200    113.91654    3504704.4    470552.62    3980779.3    738458.56 
     300    110.24349     880625.7    419612.12    1305582.1    190504.76 
     400    109.88238     331267.3    396030.79    732624.85    73354.794 
     500     104.8886    176607.13    381176.98    562868.79    40157.741 
     600    101.36556    116568.59    363830.93    485313.42    28345.495 
     700    93.645953    85837.869    345360.22    435737.75    22408.285 
     800    83.210429    67012.531    327503.81    398550.13    18793.122 
     900    85.096488    52318.918    311177.83    367621.97    16229.235 
    1000    87.289612    41353.081     296196.9    341781.51    14143.886 
    1100    85.067703    33761.954    282418.98    320304.76    12600.181 
    1200    85.502583    28968.024    269910.42    303023.34    11413.329 
    1300     80.96353    25346.662    259403.34    288674.86     10260.64 
    1400    74.439556    22408.959    251053.31    277070.87    9141.1846 
    1500    71.272729    20021.095    244215.23    267691.41    8209.5521 
    1600    68.453657    17899.661    238250.41     259468.5    7549.9944 
    1700    64.469114    16173.441    233115.52    252414.22    6926.1387 
    1800    61.047992     14324.96     228634.2    245918.58    6361.1286 
    1900     58.77909    12932.327    224646.29    240428.05    5901.4483 
    2000    57.354245    11224.169    221030.11    235034.64    5478.3155 
    2100    57.644343    9885.8808    217630.94    230311.24    5120.0659 
    2200     57.67813    8855.7769    214323.57     225975.4    4809.1958 
    2300    56.796675    7817.9131    211087.05    221658.29    4530.3352 
    2400    55.273175    6883.9655    208050.88    217614.32    4292.6719 
    2500    53.809752    6058.9251    205241.66    213909.12    4104.1905 
    2600    52.514482    5336.2689    202636.21    210518.21    3961.5782 
    2700    51.975419    4708.3024    200135.79     207363.7    3857.9664 
    2800    51.987976    3940.9197    197705.54    204166.68    3783.1881 
    2900    52.486083    3491.5727    195344.15    201380.09    3764.4308 
    3000    53.147518    3070.7178    193105.04    198752.18    3768.9143 
    3100    54.040514     2644.836    191020.08    196284.63    3764.5489 
    3200    55.006919    2107.8305    189040.98    193815.38    3772.4169 
    3300    56.147069    1679.7605    187158.42    191560.02    3830.3958 
    3400     56.90439    1581.0198    185353.33     189692.9    3893.1291 
    3500    57.136157    1394.4067    183651.14    187815.33    3930.9972 
    3600    56.925208    1170.1408    182072.37    186002.07    4003.6663 
    3700    56.776396    971.23589    180648.88    184372.46    4065.4568 
    3800    57.350696    855.57376    179366.06    183001.82    4106.8978 
    3900    58.353233    666.85163    178153.45    181649.09    4168.0966 
    4000    59.336958    398.93989    176997.35    180272.76    4248.5278 
    4100    59.901568    207.78128    175871.69    178983.32    4323.7919 
    4200    59.959305    30.475366    174747.94    177685.06    4403.6444 
    4300    59.721078    123.58747    173668.79    176687.47    4502.8535 
    4400    59.333387    71.418246    172650.06    175597.78    4598.1112 
    4500    58.864475    24.244061    171701.66    174579.48    4685.1601 
    4600    58.295716   -27.210447    170766.16    173564.95    4784.7563 
    4700    57.647382   -33.671314    169871.14    172632.04    4886.0515 
    4800    56.957021   -105.20992    169002.36    171658.25    4962.6826 
    4900    56.006864   -99.895787    168170.91    170786.05    5049.3818 
    5000    55.496647    217.80658    167371.78    170279.89    5156.1228 
    5100    54.779661    253.24267    166600.21       169509    5244.5971 
    5200    54.285005    296.95479    165820.27    168748.79    5334.4893 
    5300    53.685052    248.38742    165034.74    167885.62    5430.7695 
    5400    52.799845    288.37228    164287.19    167135.13    5515.9948 
    5500    51.437403    480.38147    163645.14    166619.05    5603.7532 
    5600    49.860794     598.9547    163133.24    166149.29    5682.6239 
    5700    48.225973    614.75786    162739.79     165692.4    5750.5766 
    5800    46.502659    560.69922    162443.76    165258.76    5820.3318 
    5900     45.29302    505.77059    162199.12    164900.56    5877.7722 
    6000    44.319677    598.64848    161948.29    164695.42    5938.0386 
    6100    43.306186    636.20138    161669.07    164404.62    5992.5498 
    6200    42.322604    733.52842    161340.42    164125.62    6051.0125 
    6300    41.136153    574.04038    160998.91    163567.11    6095.9406 
    6400    39.720852    634.66841    160700.56    163260.77    6137.0901 
    6500    38.193868    584.47741    160465.02    162901.02    6175.2409 
    6600    36.893879    413.69785     160277.4     162479.6    6204.4939 
    6700    35.568155    264.24427    160115.12     162103.6    6234.8975 
    6800    34.207471      286.892    159977.25    161922.42    6267.8783 
    6900      32.8343     206.3788    159898.97    161697.05    6291.7362 
    7000     31.47737    133.05806    159843.72     161502.7    6316.0353 
    7100    30.512302    252.64333    159788.97    161520.75    6331.2789 
    7200    29.926058    310.94264    159730.31    161491.97    6340.9417 
    7300     29.14119     396.3437    159694.54    161503.56    6349.4718 
    7400    28.131738    567.43585    159680.67    161611.85    6346.1008 
    7500    27.375348    559.45284    159650.44    161536.97    6342.6241 
    7600    26.960134    622.17202    159616.24    161545.35    6337.5974 
    7700    26.728791    784.00579    159593.63    161673.36    6317.1673 
    7800    26.326684    648.54805    159566.64    161491.42    6297.7661 
    7900    25.655467    697.69188    159545.17    161486.56    6279.1006 
    8000    25.026661    676.60225    159524.88    161414.69    6248.1111 
    8100    24.617927    670.75124    159499.47    161363.62    6216.9071 
    8200     24.46979    646.74289    159459.21    161292.17    6194.1642 
    8300    24.424165    684.28341    159415.98    161284.27    6169.2641 
    8400    24.352395     628.5072    159378.17     161187.2    6135.5893 
    8500    24.175472    631.58136     159354.2    161157.73    6113.0607 
    8600    23.936624    461.42572       159355     160976.8    6080.7488 
    8700     23.76489     423.2566    159348.43    160923.74    6053.2772 
    8800    23.649764     371.2783    159322.24    160839.99     6028.488 
    8900    23.614675    307.11184    159285.58    160737.46    6004.5868 
    9000    23.556939    130.16991    159257.81    160529.95    5977.1738 
    9100    23.449584     211.7295    159231.78    160580.27    5950.9283 
    9200    23.511948    59.797876    159186.46    160386.05    5935.0425 
    9300     23.63157    27.149555    159125.04    160297.77    5915.9949 
    9400    23.618161    15.743228    159056.03     160216.7     5889.133 
    9500    23.627772   -230.64886    158991.18    159905.93    5860.1237 
    9600    23.411446   -338.29964    158935.56    159732.17    5832.5909 
    9700    23.100906   -127.61418       158910    159902.25    5812.8691 
    9800     22.65228   -128.21304    158904.73    159874.63      5780.31 
    9900    22.055654   -58.087094    158915.31    159926.41    5756.8478 
   10000    21.539886   -24.123053    158912.74     159932.8    5742.9194 
Loop time of 1011.76 on 1 procs for 10000 steps with 16264 atoms

Performance: 0.085 ns/day, 281.043 hours/ns, 9.884 timesteps/s
99.7% CPU use with 1 MPI tasks x 1 OpenMP threads

MPI task timing breakdown:
Section |  min time  |  avg time  |  max time  |%varavg| %total
---------------------------------------------------------------
Pair    | 771.04     | 771.04     | 771.04     |   0.0 | 76.21
Bond    | 229.08     | 229.08     | 229.08     |   0.0 | 22.64
Neigh   | 2.1532     | 2.1532     | 2.1532     |   0.0 |  0.21
Comm    | 2.6691     | 2.6691     | 2.6691     |   0.0 |  0.26
Output  | 0.037014   | 0.037014   | 0.037014   |   0.0 |  0.00
Modify  | 4.9762     | 4.9762     | 4.9762     |   0.0 |  0.49
Other   |            | 1.793      |            |       |  0.18

Nlocal:    16264 ave 16264 max 16264 min
Histogram: 1 0 0 0 0 0 0 0 0 0
Nghost:    20312 ave 20312 max 20312 min
Histogram: 1 0 0 0 0 0 0 0 0 0
Neighs:    3.94837e+06 ave 3.94837e+06 max 3.94837e+06 min
Histogram: 1 0 0 0 0 0 0 0 0 0

Total # of neighbors = 3948370
Ave neighs/atom = 242.767
Ave special neighs/atom = 12.134
Neighbor list builds = 7
Dangerous builds = 0
Total wall time: 0:16:52
